V -t * -v 1.0a5 -a 0
A -t * -n 1 -p 0 -o 0x7fffffff -c 30 -a 1
A -t * -h 1 -m 1073741823 -s 0
c -t * -i 1 -n Blue
c -t * -i 2 -n Red
n -t * -a 0 -s 0 -S UP -v circle -c black -i black
n -t * -a 1 -s 1 -S UP -v circle -c black -i black
n -t * -a 2 -s 2 -S UP -v circle -c black -i black
n -t * -a 3 -s 3 -S UP -v circle -c black -i black
l -t * -s 0 -d 1 -S UP -r 10000000 -D 0.0050000000000000001 -c black
l -t * -s 0 -d 2 -S UP -r 10000000 -D 0.0050000000000000001 -c black
l -t * -s 0 -d 3 -S UP -r 10000000 -D 0.0050000000000000001 -c black
+ -t 0.000169788487334637 -s 0 -d 1 -p rtProtoLS -e 100 -c 0 -i 0 -a 0 -x {0.2 1.3 -1 ------- null}
- -t 0.000169788487334637 -s 0 -d 1 -p rtProtoLS -e 100 -c 0 -i 0 -a 0 -x {0.2 1.3 -1 ------- null}
h -t 0.000169788487334637 -s 0 -d 1 -p rtProtoLS -e 100 -c 0 -i 0 -a 0 -x {0.2 1.3 -1 ------- null}
+ -t 0.000169788487334637 -s 0 -d 2 -p rtProtoLS -e 100 -c 0 -i 1 -a 0 -x {0.2 2.2 -1 ------- null}
- -t 0.000169788487334637 -s 0 -d 2 -p rtProtoLS -e 100 -c 0 -i 1 -a 0 -x {0.2 2.2 -1 ------- null}
h -t 0.000169788487334637 -s 0 -d 2 -p rtProtoLS -e 100 -c 0 -i 1 -a 0 -x {0.2 2.2 -1 ------- null}
+ -t 0.000169788487334637 -s 0 -d 3 -p rtProtoLS -e 100 -c 0 -i 2 -a 0 -x {0.2 3.3 -1 ------- null}
- -t 0.000169788487334637 -s 0 -d 3 -p rtProtoLS -e 100 -c 0 -i 2 -a 0 -x {0.2 3.3 -1 ------- null}
h -t 0.000169788487334637 -s 0 -d 3 -p rtProtoLS -e 100 -c 0 -i 2 -a 0 -x {0.2 3.3 -1 ------- null}
r -t 0.00524978848733464 -s 0 -d 1 -p rtProtoLS -e 100 -c 0 -i 0 -a 0 -x {0.2 1.3 -1 ------- null}
+ -t 0.00524978848733464 -s 1 -d 0 -p rtProtoLS -e 20 -c 0 -i 3 -a 0 -x {1.3 0.2 -1 ------- null}
- -t 0.00524978848733464 -s 1 -d 0 -p rtProtoLS -e 20 -c 0 -i 3 -a 0 -x {1.3 0.2 -1 ------- null}
h -t 0.00524978848733464 -s 1 -d 0 -p rtProtoLS -e 20 -c 0 -i 3 -a 0 -x {1.3 0.2 -1 ------- null}
r -t 0.00524978848733464 -s 0 -d 2 -p rtProtoLS -e 100 -c 0 -i 1 -a 0 -x {0.2 2.2 -1 ------- null}
+ -t 0.00524978848733464 -s 2 -d 0 -p rtProtoLS -e 20 -c 0 -i 4 -a 0 -x {2.2 0.2 -1 ------- null}
- -t 0.00524978848733464 -s 2 -d 0 -p rtProtoLS -e 20 -c 0 -i 4 -a 0 -x {2.2 0.2 -1 ------- null}
h -t 0.00524978848733464 -s 2 -d 0 -p rtProtoLS -e 20 -c 0 -i 4 -a 0 -x {2.2 0.2 -1 ------- null}
r -t 0.00524978848733464 -s 0 -d 3 -p rtProtoLS -e 100 -c 0 -i 2 -a 0 -x {0.2 3.3 -1 ------- null}
+ -t 0.00524978848733464 -s 3 -d 0 -p rtProtoLS -e 20 -c 0 -i 5 -a 0 -x {3.3 0.2 -1 ------- null}
- -t 0.00524978848733464 -s 3 -d 0 -p rtProtoLS -e 20 -c 0 -i 5 -a 0 -x {3.3 0.2 -1 ------- null}
h -t 0.00524978848733464 -s 3 -d 0 -p rtProtoLS -e 20 -c 0 -i 5 -a 0 -x {3.3 0.2 -1 ------- null}
+ -t 0.00710233021858257 -s 2 -d 0 -p rtProtoLS -e 100 -c 0 -i 6 -a 0 -x {2.2 0.2 -1 ------- null}
- -t 0.00710233021858257 -s 2 -d 0 -p rtProtoLS -e 100 -c 0 -i 6 -a 0 -x {2.2 0.2 -1 ------- null}
h -t 0.00710233021858257 -s 2 -d 0 -p rtProtoLS -e 100 -c 0 -i 6 -a 0 -x {2.2 0.2 -1 ------- null}
r -t 0.0102657884873346 -s 1 -d 0 -p rtProtoLS -e 20 -c 0 -i 3 -a 0 -x {1.3 0.2 -1 ------- null}
r -t 0.0102657884873346 -s 2 -d 0 -p rtProtoLS -e 20 -c 0 -i 4 -a 0 -x {2.2 0.2 -1 ------- null}
r -t 0.0102657884873346 -s 3 -d 0 -p rtProtoLS -e 20 -c 0 -i 5 -a 0 -x {3.3 0.2 -1 ------- null}
r -t 0.0121823302185826 -s 2 -d 0 -p rtProtoLS -e 100 -c 0 -i 6 -a 0 -x {2.2 0.2 -1 ------- null}
+ -t 0.0121823302185826 -s 0 -d 2 -p rtProtoLS -e 20 -c 0 -i 7 -a 0 -x {0.2 2.2 -1 ------- null}
- -t 0.0121823302185826 -s 0 -d 2 -p rtProtoLS -e 20 -c 0 -i 7 -a 0 -x {0.2 2.2 -1 ------- null}
h -t 0.0121823302185826 -s 0 -d 2 -p rtProtoLS -e 20 -c 0 -i 7 -a 0 -x {0.2 2.2 -1 ------- null}
+ -t 0.0121823302185826 -s 0 -d 1 -p rtProtoLS -e 100 -c 0 -i 8 -a 0 -x {0.2 1.3 -1 ------- null}
- -t 0.0121823302185826 -s 0 -d 1 -p rtProtoLS -e 100 -c 0 -i 8 -a 0 -x {0.2 1.3 -1 ------- null}
h -t 0.0121823302185826 -s 0 -d 1 -p rtProtoLS -e 100 -c 0 -i 8 -a 0 -x {0.2 1.3 -1 ------- null}
+ -t 0.0121823302185826 -s 0 -d 3 -p rtProtoLS -e 100 -c 0 -i 9 -a 0 -x {0.2 3.3 -1 ------- null}
- -t 0.0121823302185826 -s 0 -d 3 -p rtProtoLS -e 100 -c 0 -i 9 -a 0 -x {0.2 3.3 -1 ------- null}
h -t 0.0121823302185826 -s 0 -d 3 -p rtProtoLS -e 100 -c 0 -i 9 -a 0 -x {0.2 3.3 -1 ------- null}
r -t 0.0171983302185826 -s 0 -d 2 -p rtProtoLS -e 20 -c 0 -i 7 -a 0 -x {0.2 2.2 -1 ------- null}
r -t 0.0172623302185826 -s 0 -d 1 -p rtProtoLS -e 100 -c 0 -i 8 -a 0 -x {0.2 1.3 -1 ------- null}
+ -t 0.0172623302185826 -s 1 -d 0 -p rtProtoLS -e 20 -c 0 -i 10 -a 0 -x {1.3 0.2 -1 ------- null}
- -t 0.0172623302185826 -s 1 -d 0 -p rtProtoLS -e 20 -c 0 -i 10 -a 0 -x {1.3 0.2 -1 ------- null}
h -t 0.0172623302185826 -s 1 -d 0 -p rtProtoLS -e 20 -c 0 -i 10 -a 0 -x {1.3 0.2 -1 ------- null}
r -t 0.0172623302185826 -s 0 -d 3 -p rtProtoLS -e 100 -c 0 -i 9 -a 0 -x {0.2 3.3 -1 ------- null}
+ -t 0.0172623302185826 -s 3 -d 0 -p rtProtoLS -e 20 -c 0 -i 11 -a 0 -x {3.3 0.2 -1 ------- null}
- -t 0.0172623302185826 -s 3 -d 0 -p rtProtoLS -e 20 -c 0 -i 11 -a 0 -x {3.3 0.2 -1 ------- null}
h -t 0.0172623302185826 -s 3 -d 0 -p rtProtoLS -e 20 -c 0 -i 11 -a 0 -x {3.3 0.2 -1 ------- null}
r -t 0.0222783302185826 -s 1 -d 0 -p rtProtoLS -e 20 -c 0 -i 10 -a 0 -x {1.3 0.2 -1 ------- null}
r -t 0.0222783302185826 -s 3 -d 0 -p rtProtoLS -e 20 -c 0 -i 11 -a 0 -x {3.3 0.2 -1 ------- null}
+ -t 0.04406133552271 -s 3 -d 0 -p rtProtoLS -e 100 -c 0 -i 12 -a 0 -x {3.3 0.2 -1 ------- null}
- -t 0.04406133552271 -s 3 -d 0 -p rtProtoLS -e 100 -c 0 -i 12 -a 0 -x {3.3 0.2 -1 ------- null}
h -t 0.04406133552271 -s 3 -d 0 -p rtProtoLS -e 100 -c 0 -i 12 -a 0 -x {3.3 0.2 -1 ------- null}
r -t 0.04914133552271 -s 3 -d 0 -p rtProtoLS -e 100 -c 0 -i 12 -a 0 -x {3.3 0.2 -1 ------- null}
+ -t 0.04914133552271 -s 0 -d 3 -p rtProtoLS -e 20 -c 0 -i 13 -a 0 -x {0.2 3.3 -1 ------- null}
- -t 0.04914133552271 -s 0 -d 3 -p rtProtoLS -e 20 -c 0 -i 13 -a 0 -x {0.2 3.3 -1 ------- null}
h -t 0.04914133552271 -s 0 -d 3 -p rtProtoLS -e 20 -c 0 -i 13 -a 0 -x {0.2 3.3 -1 ------- null}
+ -t 0.04914133552271 -s 0 -d 1 -p rtProtoLS -e 100 -c 0 -i 14 -a 0 -x {0.2 1.3 -1 ------- null}
- -t 0.04914133552271 -s 0 -d 1 -p rtProtoLS -e 100 -c 0 -i 14 -a 0 -x {0.2 1.3 -1 ------- null}
h -t 0.04914133552271 -s 0 -d 1 -p rtProtoLS -e 100 -c 0 -i 14 -a 0 -x {0.2 1.3 -1 ------- null}
+ -t 0.04914133552271 -s 0 -d 2 -p rtProtoLS -e 100 -c 0 -i 15 -a 0 -x {0.2 2.2 -1 ------- null}
- -t 0.04914133552271 -s 0 -d 2 -p rtProtoLS -e 100 -c 0 -i 15 -a 0 -x {0.2 2.2 -1 ------- null}
h -t 0.04914133552271 -s 0 -d 2 -p rtProtoLS -e 100 -c 0 -i 15 -a 0 -x {0.2 2.2 -1 ------- null}
r -t 0.05415733552271 -s 0 -d 3 -p rtProtoLS -e 20 -c 0 -i 13 -a 0 -x {0.2 3.3 -1 ------- null}
r -t 0.05422133552271 -s 0 -d 1 -p rtProtoLS -e 100 -c 0 -i 14 -a 0 -x {0.2 1.3 -1 ------- null}
+ -t 0.05422133552271 -s 1 -d 0 -p rtProtoLS -e 20 -c 0 -i 16 -a 0 -x {1.3 0.2 -1 ------- null}
- -t 0.05422133552271 -s 1 -d 0 -p rtProtoLS -e 20 -c 0 -i 16 -a 0 -x {1.3 0.2 -1 ------- null}
h -t 0.05422133552271 -s 1 -d 0 -p rtProtoLS -e 20 -c 0 -i 16 -a 0 -x {1.3 0.2 -1 ------- null}
r -t 0.05422133552271 -s 0 -d 2 -p rtProtoLS -e 100 -c 0 -i 15 -a 0 -x {0.2 2.2 -1 ------- null}
+ -t 0.05422133552271 -s 2 -d 0 -p rtProtoLS -e 20 -c 0 -i 17 -a 0 -x {2.2 0.2 -1 ------- null}
- -t 0.05422133552271 -s 2 -d 0 -p rtProtoLS -e 20 -c 0 -i 17 -a 0 -x {2.2 0.2 -1 ------- null}
h -t 0.05422133552271 -s 2 -d 0 -p rtProtoLS -e 20 -c 0 -i 17 -a 0 -x {2.2 0.2 -1 ------- null}
r -t 0.05923733552271 -s 1 -d 0 -p rtProtoLS -e 20 -c 0 -i 16 -a 0 -x {1.3 0.2 -1 ------- null}
r -t 0.05923733552271 -s 2 -d 0 -p rtProtoLS -e 20 -c 0 -i 17 -a 0 -x {2.2 0.2 -1 ------- null}
+ -t 0.277940357931862 -s 1 -d 0 -p rtProtoLS -e 100 -c 0 -i 18 -a 0 -x {1.3 0.2 -1 ------- null}
- -t 0.277940357931862 -s 1 -d 0 -p rtProtoLS -e 100 -c 0 -i 18 -a 0 -x {1.3 0.2 -1 ------- null}
h -t 0.277940357931862 -s 1 -d 0 -p rtProtoLS -e 100 -c 0 -i 18 -a 0 -x {1.3 0.2 -1 ------- null}
r -t 0.283020357931862 -s 1 -d 0 -p rtProtoLS -e 100 -c 0 -i 18 -a 0 -x {1.3 0.2 -1 ------- null}
+ -t 0.283020357931862 -s 0 -d 1 -p rtProtoLS -e 20 -c 0 -i 19 -a 0 -x {0.2 1.3 -1 ------- null}
- -t 0.283020357931862 -s 0 -d 1 -p rtProtoLS -e 20 -c 0 -i 19 -a 0 -x {0.2 1.3 -1 ------- null}
h -t 0.283020357931862 -s 0 -d 1 -p rtProtoLS -e 20 -c 0 -i 19 -a 0 -x {0.2 1.3 -1 ------- null}
+ -t 0.283020357931862 -s 0 -d 2 -p rtProtoLS -e 100 -c 0 -i 20 -a 0 -x {0.2 2.2 -1 ------- null}
- -t 0.283020357931862 -s 0 -d 2 -p rtProtoLS -e 100 -c 0 -i 20 -a 0 -x {0.2 2.2 -1 ------- null}
h -t 0.283020357931862 -s 0 -d 2 -p rtProtoLS -e 100 -c 0 -i 20 -a 0 -x {0.2 2.2 -1 ------- null}
+ -t 0.283020357931862 -s 0 -d 3 -p rtProtoLS -e 100 -c 0 -i 21 -a 0 -x {0.2 3.3 -1 ------- null}
- -t 0.283020357931862 -s 0 -d 3 -p rtProtoLS -e 100 -c 0 -i 21 -a 0 -x {0.2 3.3 -1 ------- null}
h -t 0.283020357931862 -s 0 -d 3 -p rtProtoLS -e 100 -c 0 -i 21 -a 0 -x {0.2 3.3 -1 ------- null}
r -t 0.288036357931862 -s 0 -d 1 -p rtProtoLS -e 20 -c 0 -i 19 -a 0 -x {0.2 1.3 -1 ------- null}
r -t 0.288100357931862 -s 0 -d 2 -p rtProtoLS -e 100 -c 0 -i 20 -a 0 -x {0.2 2.2 -1 ------- null}
+ -t 0.288100357931862 -s 2 -d 0 -p rtProtoLS -e 20 -c 0 -i 22 -a 0 -x {2.2 0.2 -1 ------- null}
- -t 0.288100357931862 -s 2 -d 0 -p rtProtoLS -e 20 -c 0 -i 22 -a 0 -x {2.2 0.2 -1 ------- null}
h -t 0.288100357931862 -s 2 -d 0 -p rtProtoLS -e 20 -c 0 -i 22 -a 0 -x {2.2 0.2 -1 ------- null}
r -t 0.288100357931862 -s 0 -d 3 -p rtProtoLS -e 100 -c 0 -i 21 -a 0 -x {0.2 3.3 -1 ------- null}
+ -t 0.288100357931862 -s 3 -d 0 -p rtProtoLS -e 20 -c 0 -i 23 -a 0 -x {3.3 0.2 -1 ------- null}
- -t 0.288100357931862 -s 3 -d 0 -p rtProtoLS -e 20 -c 0 -i 23 -a 0 -x {3.3 0.2 -1 ------- null}
h -t 0.288100357931862 -s 3 -d 0 -p rtProtoLS -e 20 -c 0 -i 23 -a 0 -x {3.3 0.2 -1 ------- null}
r -t 0.293116357931862 -s 2 -d 0 -p rtProtoLS -e 20 -c 0 -i 22 -a 0 -x {2.2 0.2 -1 ------- null}
r -t 0.293116357931862 -s 3 -d 0 -p rtProtoLS -e 20 -c 0 -i 23 -a 0 -x {3.3 0.2 -1 ------- null}
+ -t 1 -s 3 -d 0 -p cbr -e 210 -c 0 -i 24 -a 0 -x {3.0 0.0 0 ------- null}
- -t 1 -s 3 -d 0 -p cbr -e 210 -c 0 -i 24 -a 0 -x {3.0 0.0 0 ------- null}
h -t 1 -s 3 -d 0 -p cbr -e 210 -c 0 -i 24 -a 0 -x {3.0 0.0 -1 ------- null}
+ -t 1.00375 -s 3 -d 0 -p cbr -e 210 -c 0 -i 25 -a 0 -x {3.0 0.0 1 ------- null}
- -t 1.00375 -s 3 -d 0 -p cbr -e 210 -c 0 -i 25 -a 0 -x {3.0 0.0 1 ------- null}
h -t 1.00375 -s 3 -d 0 -p cbr -e 210 -c 0 -i 25 -a 0 -x {3.0 0.0 -1 ------- null}
r -t 1.005168 -s 3 -d 0 -p cbr -e 210 -c 0 -i 24 -a 0 -x {3.0 0.0 0 ------- null}
+ -t 1.0075 -s 3 -d 0 -p cbr -e 210 -c 0 -i 26 -a 0 -x {3.0 0.0 2 ------- null}
- -t 1.0075 -s 3 -d 0 -p cbr -e 210 -c 0 -i 26 -a 0 -x {3.0 0.0 2 ------- null}
h -t 1.0075 -s 3 -d 0 -p cbr -e 210 -c 0 -i 26 -a 0 -x {3.0 0.0 -1 ------- null}
r -t 1.008918 -s 3 -d 0 -p cbr -e 210 -c 0 -i 25 -a 0 -x {3.0 0.0 1 ------- null}
+ -t 1.01125 -s 3 -d 0 -p cbr -e 210 -c 0 -i 27 -a 0 -x {3.0 0.0 3 ------- null}
- -t 1.01125 -s 3 -d 0 -p cbr -e 210 -c 0 -i 27 -a 0 -x {3.0 0.0 3 ------- null}
h -t 1.01125 -s 3 -d 0 -p cbr -e 210 -c 0 -i 27 -a 0 -x {3.0 0.0 -1 ------- null}
r -t 1.012668 -s 3 -d 0 -p cbr -e 210 -c 0 -i 26 -a 0 -x {3.0 0.0 2 ------- null}
+ -t 1.015 -s 3 -d 0 -p cbr -e 210 -c 0 -i 28 -a 0 -x {3.0 0.0 4 ------- null}
- -t 1.015 -s 3 -d 0 -p cbr -e 210 -c 0 -i 28 -a 0 -x {3.0 0.0 4 ------- null}
h -t 1.015 -s 3 -d 0 -p cbr -e 210 -c 0 -i 28 -a 0 -x {3.0 0.0 -1 ------- null}
r -t 1.016418 -s 3 -d 0 -p cbr -e 210 -c 0 -i 27 -a 0 -x {3.0 0.0 3 ------- null}
+ -t 1.01875 -s 3 -d 0 -p cbr -e 210 -c 0 -i 29 -a 0 -x {3.0 0.0 5 ------- null}
- -t 1.01875 -s 3 -d 0 -p cbr -e 210 -c 0 -i 29 -a 0 -x {3.0 0.0 5 ------- null}
h -t 1.01875 -s 3 -d 0 -p cbr -e 210 -c 0 -i 29 -a 0 -x {3.0 0.0 -1 ------- null}
r -t 1.020168 -s 3 -d 0 -p cbr -e 210 -c 0 -i 28 -a 0 -x {3.0 0.0 4 ------- null}
+ -t 1.0225 -s 3 -d 0 -p cbr -e 210 -c 0 -i 30 -a 0 -x {3.0 0.0 6 ------- null}
- -t 1.0225 -s 3 -d 0 -p cbr -e 210 -c 0 -i 30 -a 0 -x {3.0 0.0 6 ------- null}
h -t 1.0225 -s 3 -d 0 -p cbr -e 210 -c 0 -i 30 -a 0 -x {3.0 0.0 -1 ------- null}
r -t 1.023918 -s 3 -d 0 -p cbr -e 210 -c 0 -i 29 -a 0 -x {3.0 0.0 5 ------- null}
+ -t 1.02625 -s 3 -d 0 -p cbr -e 210 -c 0 -i 31 -a 0 -x {3.0 0.0 7 ------- null}
- -t 1.02625 -s 3 -d 0 -p cbr -e 210 -c 0 -i 31 -a 0 -x {3.0 0.0 7 ------- null}
h -t 1.02625 -s 3 -d 0 -p cbr -e 210 -c 0 -i 31 -a 0 -x {3.0 0.0 -1 ------- null}
r -t 1.027668 -s 3 -d 0 -p cbr -e 210 -c 0 -i 30 -a 0 -x {3.0 0.0 6 ------- null}
+ -t 1.03 -s 3 -d 0 -p cbr -e 210 -c 0 -i 32 -a 0 -x {3.0 0.0 8 ------- null}
- -t 1.03 -s 3 -d 0 -p cbr -e 210 -c 0 -i 32 -a 0 -x {3.0 0.0 8 ------- null}
h -t 1.03 -s 3 -d 0 -p cbr -e 210 -c 0 -i 32 -a 0 -x {3.0 0.0 -1 ------- null}
r -t 1.031418 -s 3 -d 0 -p cbr -e 210 -c 0 -i 31 -a 0 -x {3.0 0.0 7 ------- null}
+ -t 1.03375 -s 3 -d 0 -p cbr -e 210 -c 0 -i 33 -a 0 -x {3.0 0.0 9 ------- null}
- -t 1.03375 -s 3 -d 0 -p cbr -e 210 -c 0 -i 33 -a 0 -x {3.0 0.0 9 ------- null}
h -t 1.03375 -s 3 -d 0 -p cbr -e 210 -c 0 -i 33 -a 0 -x {3.0 0.0 -1 ------- null}
r -t 1.035168 -s 3 -d 0 -p cbr -e 210 -c 0 -i 32 -a 0 -x {3.0 0.0 8 ------- null}
+ -t 1.0375 -s 3 -d 0 -p cbr -e 210 -c 0 -i 34 -a 0 -x {3.0 0.0 10 ------- null}
- -t 1.0375 -s 3 -d 0 -p cbr -e 210 -c 0 -i 34 -a 0 -x {3.0 0.0 10 ------- null}
h -t 1.0375 -s 3 -d 0 -p cbr -e 210 -c 0 -i 34 -a 0 -x {3.0 0.0 -1 ------- null}
r -t 1.038918 -s 3 -d 0 -p cbr -e 210 -c 0 -i 33 -a 0 -x {3.0 0.0 9 ------- null}
+ -t 1.04125 -s 3 -d 0 -p cbr -e 210 -c 0 -i 35 -a 0 -x {3.0 0.0 11 ------- null}
- -t 1.04125 -s 3 -d 0 -p cbr -e 210 -c 0 -i 35 -a 0 -x {3.0 0.0 11 ------- null}
h -t 1.04125 -s 3 -d 0 -p cbr -e 210 -c 0 -i 35 -a 0 -x {3.0 0.0 -1 ------- null}
r -t 1.042668 -s 3 -d 0 -p cbr -e 210 -c 0 -i 34 -a 0 -x {3.0 0.0 10 ------- null}
+ -t 1.045 -s 3 -d 0 -p cbr -e 210 -c 0 -i 36 -a 0 -x {3.0 0.0 12 ------- null}
- -t 1.045 -s 3 -d 0 -p cbr -e 210 -c 0 -i 36 -a 0 -x {3.0 0.0 12 ------- null}
h -t 1.045 -s 3 -d 0 -p cbr -e 210 -c 0 -i 36 -a 0 -x {3.0 0.0 -1 ------- null}
r -t 1.046418 -s 3 -d 0 -p cbr -e 210 -c 0 -i 35 -a 0 -x {3.0 0.0 11 ------- null}
+ -t 1.04875 -s 3 -d 0 -p cbr -e 210 -c 0 -i 37 -a 0 -x {3.0 0.0 13 ------- null}
- -t 1.04875 -s 3 -d 0 -p cbr -e 210 -c 0 -i 37 -a 0 -x {3.0 0.0 13 ------- null}
h -t 1.04875 -s 3 -d 0 -p cbr -e 210 -c 0 -i 37 -a 0 -x {3.0 0.0 -1 ------- null}
r -t 1.050168 -s 3 -d 0 -p cbr -e 210 -c 0 -i 36 -a 0 -x {3.0 0.0 12 ------- null}
+ -t 1.0525 -s 3 -d 0 -p cbr -e 210 -c 0 -i 38 -a 0 -x {3.0 0.0 14 ------- null}
- -t 1.0525 -s 3 -d 0 -p cbr -e 210 -c 0 -i 38 -a 0 -x {3.0 0.0 14 ------- null}
h -t 1.0525 -s 3 -d 0 -p cbr -e 210 -c 0 -i 38 -a 0 -x {3.0 0.0 -1 ------- null}
r -t 1.053918 -s 3 -d 0 -p cbr -e 210 -c 0 -i 37 -a 0 -x {3.0 0.0 13 ------- null}
+ -t 1.05625 -s 3 -d 0 -p cbr -e 210 -c 0 -i 39 -a 0 -x {3.0 0.0 15 ------- null}
- -t 1.05625 -s 3 -d 0 -p cbr -e 210 -c 0 -i 39 -a 0 -x {3.0 0.0 15 ------- null}
h -t 1.05625 -s 3 -d 0 -p cbr -e 210 -c 0 -i 39 -a 0 -x {3.0 0.0 -1 ------- null}
r -t 1.057668 -s 3 -d 0 -p cbr -e 210 -c 0 -i 38 -a 0 -x {3.0 0.0 14 ------- null}
+ -t 1.06 -s 3 -d 0 -p cbr -e 210 -c 0 -i 40 -a 0 -x {3.0 0.0 16 ------- null}
- -t 1.06 -s 3 -d 0 -p cbr -e 210 -c 0 -i 40 -a 0 -x {3.0 0.0 16 ------- null}
h -t 1.06 -s 3 -d 0 -p cbr -e 210 -c 0 -i 40 -a 0 -x {3.0 0.0 -1 ------- null}
r -t 1.061418 -s 3 -d 0 -p cbr -e 210 -c 0 -i 39 -a 0 -x {3.0 0.0 15 ------- null}
+ -t 1.06375 -s 3 -d 0 -p cbr -e 210 -c 0 -i 41 -a 0 -x {3.0 0.0 17 ------- null}
- -t 1.06375 -s 3 -d 0 -p cbr -e 210 -c 0 -i 41 -a 0 -x {3.0 0.0 17 ------- null}
h -t 1.06375 -s 3 -d 0 -p cbr -e 210 -c 0 -i 41 -a 0 -x {3.0 0.0 -1 ------- null}
r -t 1.065168 -s 3 -d 0 -p cbr -e 210 -c 0 -i 40 -a 0 -x {3.0 0.0 16 ------- null}
+ -t 1.0675 -s 3 -d 0 -p cbr -e 210 -c 0 -i 42 -a 0 -x {3.0 0.0 18 ------- null}
- -t 1.0675 -s 3 -d 0 -p cbr -e 210 -c 0 -i 42 -a 0 -x {3.0 0.0 18 ------- null}
h -t 1.0675 -s 3 -d 0 -p cbr -e 210 -c 0 -i 42 -a 0 -x {3.0 0.0 -1 ------- null}
r -t 1.068918 -s 3 -d 0 -p cbr -e 210 -c 0 -i 41 -a 0 -x {3.0 0.0 17 ------- null}
+ -t 1.07125 -s 3 -d 0 -p cbr -e 210 -c 0 -i 43 -a 0 -x {3.0 0.0 19 ------- null}
- -t 1.07125 -s 3 -d 0 -p cbr -e 210 -c 0 -i 43 -a 0 -x {3.0 0.0 19 ------- null}
h -t 1.07125 -s 3 -d 0 -p cbr -e 210 -c 0 -i 43 -a 0 -x {3.0 0.0 -1 ------- null}
r -t 1.072668 -s 3 -d 0 -p cbr -e 210 -c 0 -i 42 -a 0 -x {3.0 0.0 18 ------- null}
+ -t 1.075 -s 3 -d 0 -p cbr -e 210 -c 0 -i 44 -a 0 -x {3.0 0.0 20 ------- null}
- -t 1.075 -s 3 -d 0 -p cbr -e 210 -c 0 -i 44 -a 0 -x {3.0 0.0 20 ------- null}
h -t 1.075 -s 3 -d 0 -p cbr -e 210 -c 0 -i 44 -a 0 -x {3.0 0.0 -1 ------- null}
r -t 1.076418 -s 3 -d 0 -p cbr -e 210 -c 0 -i 43 -a 0 -x {3.0 0.0 19 ------- null}
+ -t 1.07875 -s 3 -d 0 -p cbr -e 210 -c 0 -i 45 -a 0 -x {3.0 0.0 21 ------- null}
- -t 1.07875 -s 3 -d 0 -p cbr -e 210 -c 0 -i 45 -a 0 -x {3.0 0.0 21 ------- null}
h -t 1.07875 -s 3 -d 0 -p cbr -e 210 -c 0 -i 45 -a 0 -x {3.0 0.0 -1 ------- null}
r -t 1.080168 -s 3 -d 0 -p cbr -e 210 -c 0 -i 44 -a 0 -x {3.0 0.0 20 ------- null}
+ -t 1.0825 -s 3 -d 0 -p cbr -e 210 -c 0 -i 46 -a 0 -x {3.0 0.0 22 ------- null}
- -t 1.0825 -s 3 -d 0 -p cbr -e 210 -c 0 -i 46 -a 0 -x {3.0 0.0 22 ------- null}
h -t 1.0825 -s 3 -d 0 -p cbr -e 210 -c 0 -i 46 -a 0 -x {3.0 0.0 -1 ------- null}
r -t 1.083918 -s 3 -d 0 -p cbr -e 210 -c 0 -i 45 -a 0 -x {3.0 0.0 21 ------- null}
+ -t 1.08625 -s 3 -d 0 -p cbr -e 210 -c 0 -i 47 -a 0 -x {3.0 0.0 23 ------- null}
- -t 1.08625 -s 3 -d 0 -p cbr -e 210 -c 0 -i 47 -a 0 -x {3.0 0.0 23 ------- null}
h -t 1.08625 -s 3 -d 0 -p cbr -e 210 -c 0 -i 47 -a 0 -x {3.0 0.0 -1 ------- null}
r -t 1.087668 -s 3 -d 0 -p cbr -e 210 -c 0 -i 46 -a 0 -x {3.0 0.0 22 ------- null}
+ -t 1.09 -s 3 -d 0 -p cbr -e 210 -c 0 -i 48 -a 0 -x {3.0 0.0 24 ------- null}
- -t 1.09 -s 3 -d 0 -p cbr -e 210 -c 0 -i 48 -a 0 -x {3.0 0.0 24 ------- null}
h -t 1.09 -s 3 -d 0 -p cbr -e 210 -c 0 -i 48 -a 0 -x {3.0 0.0 -1 ------- null}
r -t 1.091418 -s 3 -d 0 -p cbr -e 210 -c 0 -i 47 -a 0 -x {3.0 0.0 23 ------- null}
+ -t 1.09375 -s 3 -d 0 -p cbr -e 210 -c 0 -i 49 -a 0 -x {3.0 0.0 25 ------- null}
- -t 1.09375 -s 3 -d 0 -p cbr -e 210 -c 0 -i 49 -a 0 -x {3.0 0.0 25 ------- null}
h -t 1.09375 -s 3 -d 0 -p cbr -e 210 -c 0 -i 49 -a 0 -x {3.0 0.0 -1 ------- null}
r -t 1.095168 -s 3 -d 0 -p cbr -e 210 -c 0 -i 48 -a 0 -x {3.0 0.0 24 ------- null}
+ -t 1.0975 -s 3 -d 0 -p cbr -e 210 -c 0 -i 50 -a 0 -x {3.0 0.0 26 ------- null}
- -t 1.0975 -s 3 -d 0 -p cbr -e 210 -c 0 -i 50 -a 0 -x {3.0 0.0 26 ------- null}
h -t 1.0975 -s 3 -d 0 -p cbr -e 210 -c 0 -i 50 -a 0 -x {3.0 0.0 -1 ------- null}
r -t 1.098918 -s 3 -d 0 -p cbr -e 210 -c 0 -i 49 -a 0 -x {3.0 0.0 25 ------- null}
+ -t 1.10125 -s 3 -d 0 -p cbr -e 210 -c 0 -i 51 -a 0 -x {3.0 0.0 27 ------- null}
- -t 1.10125 -s 3 -d 0 -p cbr -e 210 -c 0 -i 51 -a 0 -x {3.0 0.0 27 ------- null}
h -t 1.10125 -s 3 -d 0 -p cbr -e 210 -c 0 -i 51 -a 0 -x {3.0 0.0 -1 ------- null}
r -t 1.102668 -s 3 -d 0 -p cbr -e 210 -c 0 -i 50 -a 0 -x {3.0 0.0 26 ------- null}
+ -t 1.105 -s 3 -d 0 -p cbr -e 210 -c 0 -i 52 -a 0 -x {3.0 0.0 28 ------- null}
- -t 1.105 -s 3 -d 0 -p cbr -e 210 -c 0 -i 52 -a 0 -x {3.0 0.0 28 ------- null}
h -t 1.105 -s 3 -d 0 -p cbr -e 210 -c 0 -i 52 -a 0 -x {3.0 0.0 -1 ------- null}
r -t 1.106418 -s 3 -d 0 -p cbr -e 210 -c 0 -i 51 -a 0 -x {3.0 0.0 27 ------- null}
+ -t 1.10875 -s 3 -d 0 -p cbr -e 210 -c 0 -i 53 -a 0 -x {3.0 0.0 29 ------- null}
- -t 1.10875 -s 3 -d 0 -p cbr -e 210 -c 0 -i 53 -a 0 -x {3.0 0.0 29 ------- null}
h -t 1.10875 -s 3 -d 0 -p cbr -e 210 -c 0 -i 53 -a 0 -x {3.0 0.0 -1 ------- null}
r -t 1.110168 -s 3 -d 0 -p cbr -e 210 -c 0 -i 52 -a 0 -x {3.0 0.0 28 ------- null}
+ -t 1.1125 -s 3 -d 0 -p cbr -e 210 -c 0 -i 54 -a 0 -x {3.0 0.0 30 ------- null}
- -t 1.1125 -s 3 -d 0 -p cbr -e 210 -c 0 -i 54 -a 0 -x {3.0 0.0 30 ------- null}
h -t 1.1125 -s 3 -d 0 -p cbr -e 210 -c 0 -i 54 -a 0 -x {3.0 0.0 -1 ------- null}
r -t 1.113918 -s 3 -d 0 -p cbr -e 210 -c 0 -i 53 -a 0 -x {3.0 0.0 29 ------- null}
+ -t 1.11625 -s 3 -d 0 -p cbr -e 210 -c 0 -i 55 -a 0 -x {3.0 0.0 31 ------- null}
- -t 1.11625 -s 3 -d 0 -p cbr -e 210 -c 0 -i 55 -a 0 -x {3.0 0.0 31 ------- null}
h -t 1.11625 -s 3 -d 0 -p cbr -e 210 -c 0 -i 55 -a 0 -x {3.0 0.0 -1 ------- null}
r -t 1.117668 -s 3 -d 0 -p cbr -e 210 -c 0 -i 54 -a 0 -x {3.0 0.0 30 ------- null}
+ -t 1.12 -s 3 -d 0 -p cbr -e 210 -c 0 -i 56 -a 0 -x {3.0 0.0 32 ------- null}
- -t 1.12 -s 3 -d 0 -p cbr -e 210 -c 0 -i 56 -a 0 -x {3.0 0.0 32 ------- null}
h -t 1.12 -s 3 -d 0 -p cbr -e 210 -c 0 -i 56 -a 0 -x {3.0 0.0 -1 ------- null}
r -t 1.121418 -s 3 -d 0 -p cbr -e 210 -c 0 -i 55 -a 0 -x {3.0 0.0 31 ------- null}
+ -t 1.12375 -s 3 -d 0 -p cbr -e 210 -c 0 -i 57 -a 0 -x {3.0 0.0 33 ------- null}
- -t 1.12375 -s 3 -d 0 -p cbr -e 210 -c 0 -i 57 -a 0 -x {3.0 0.0 33 ------- null}
h -t 1.12375 -s 3 -d 0 -p cbr -e 210 -c 0 -i 57 -a 0 -x {3.0 0.0 -1 ------- null}
r -t 1.125168 -s 3 -d 0 -p cbr -e 210 -c 0 -i 56 -a 0 -x {3.0 0.0 32 ------- null}
+ -t 1.1275 -s 3 -d 0 -p cbr -e 210 -c 0 -i 58 -a 0 -x {3.0 0.0 34 ------- null}
- -t 1.1275 -s 3 -d 0 -p cbr -e 210 -c 0 -i 58 -a 0 -x {3.0 0.0 34 ------- null}
h -t 1.1275 -s 3 -d 0 -p cbr -e 210 -c 0 -i 58 -a 0 -x {3.0 0.0 -1 ------- null}
r -t 1.128918 -s 3 -d 0 -p cbr -e 210 -c 0 -i 57 -a 0 -x {3.0 0.0 33 ------- null}
+ -t 1.13125 -s 3 -d 0 -p cbr -e 210 -c 0 -i 59 -a 0 -x {3.0 0.0 35 ------- null}
- -t 1.13125 -s 3 -d 0 -p cbr -e 210 -c 0 -i 59 -a 0 -x {3.0 0.0 35 ------- null}
h -t 1.13125 -s 3 -d 0 -p cbr -e 210 -c 0 -i 59 -a 0 -x {3.0 0.0 -1 ------- null}
r -t 1.132668 -s 3 -d 0 -p cbr -e 210 -c 0 -i 58 -a 0 -x {3.0 0.0 34 ------- null}
+ -t 1.135 -s 3 -d 0 -p cbr -e 210 -c 0 -i 60 -a 0 -x {3.0 0.0 36 ------- null}
- -t 1.135 -s 3 -d 0 -p cbr -e 210 -c 0 -i 60 -a 0 -x {3.0 0.0 36 ------- null}
h -t 1.135 -s 3 -d 0 -p cbr -e 210 -c 0 -i 60 -a 0 -x {3.0 0.0 -1 ------- null}
r -t 1.136418 -s 3 -d 0 -p cbr -e 210 -c 0 -i 59 -a 0 -x {3.0 0.0 35 ------- null}
+ -t 1.13875 -s 3 -d 0 -p cbr -e 210 -c 0 -i 61 -a 0 -x {3.0 0.0 37 ------- null}
- -t 1.13875 -s 3 -d 0 -p cbr -e 210 -c 0 -i 61 -a 0 -x {3.0 0.0 37 ------- null}
h -t 1.13875 -s 3 -d 0 -p cbr -e 210 -c 0 -i 61 -a 0 -x {3.0 0.0 -1 ------- null}
r -t 1.140168 -s 3 -d 0 -p cbr -e 210 -c 0 -i 60 -a 0 -x {3.0 0.0 36 ------- null}
+ -t 1.1425 -s 3 -d 0 -p cbr -e 210 -c 0 -i 62 -a 0 -x {3.0 0.0 38 ------- null}
- -t 1.1425 -s 3 -d 0 -p cbr -e 210 -c 0 -i 62 -a 0 -x {3.0 0.0 38 ------- null}
h -t 1.1425 -s 3 -d 0 -p cbr -e 210 -c 0 -i 62 -a 0 -x {3.0 0.0 -1 ------- null}
r -t 1.143918 -s 3 -d 0 -p cbr -e 210 -c 0 -i 61 -a 0 -x {3.0 0.0 37 ------- null}
+ -t 1.14625 -s 3 -d 0 -p cbr -e 210 -c 0 -i 63 -a 0 -x {3.0 0.0 39 ------- null}
- -t 1.14625 -s 3 -d 0 -p cbr -e 210 -c 0 -i 63 -a 0 -x {3.0 0.0 39 ------- null}
h -t 1.14625 -s 3 -d 0 -p cbr -e 210 -c 0 -i 63 -a 0 -x {3.0 0.0 -1 ------- null}
r -t 1.147668 -s 3 -d 0 -p cbr -e 210 -c 0 -i 62 -a 0 -x {3.0 0.0 38 ------- null}
+ -t 1.15 -s 3 -d 0 -p cbr -e 210 -c 0 -i 64 -a 0 -x {3.0 0.0 40 ------- null}
- -t 1.15 -s 3 -d 0 -p cbr -e 210 -c 0 -i 64 -a 0 -x {3.0 0.0 40 ------- null}
h -t 1.15 -s 3 -d 0 -p cbr -e 210 -c 0 -i 64 -a 0 -x {3.0 0.0 -1 ------- null}
r -t 1.151418 -s 3 -d 0 -p cbr -e 210 -c 0 -i 63 -a 0 -x {3.0 0.0 39 ------- null}
+ -t 1.15375 -s 3 -d 0 -p cbr -e 210 -c 0 -i 65 -a 0 -x {3.0 0.0 41 ------- null}
- -t 1.15375 -s 3 -d 0 -p cbr -e 210 -c 0 -i 65 -a 0 -x {3.0 0.0 41 ------- null}
h -t 1.15375 -s 3 -d 0 -p cbr -e 210 -c 0 -i 65 -a 0 -x {3.0 0.0 -1 ------- null}
r -t 1.155168 -s 3 -d 0 -p cbr -e 210 -c 0 -i 64 -a 0 -x {3.0 0.0 40 ------- null}
+ -t 1.1575 -s 3 -d 0 -p cbr -e 210 -c 0 -i 66 -a 0 -x {3.0 0.0 42 ------- null}
- -t 1.1575 -s 3 -d 0 -p cbr -e 210 -c 0 -i 66 -a 0 -x {3.0 0.0 42 ------- null}
h -t 1.1575 -s 3 -d 0 -p cbr -e 210 -c 0 -i 66 -a 0 -x {3.0 0.0 -1 ------- null}
r -t 1.158918 -s 3 -d 0 -p cbr -e 210 -c 0 -i 65 -a 0 -x {3.0 0.0 41 ------- null}
+ -t 1.16125 -s 3 -d 0 -p cbr -e 210 -c 0 -i 67 -a 0 -x {3.0 0.0 43 ------- null}
- -t 1.16125 -s 3 -d 0 -p cbr -e 210 -c 0 -i 67 -a 0 -x {3.0 0.0 43 ------- null}
h -t 1.16125 -s 3 -d 0 -p cbr -e 210 -c 0 -i 67 -a 0 -x {3.0 0.0 -1 ------- null}
r -t 1.162668 -s 3 -d 0 -p cbr -e 210 -c 0 -i 66 -a 0 -x {3.0 0.0 42 ------- null}
+ -t 1.165 -s 3 -d 0 -p cbr -e 210 -c 0 -i 68 -a 0 -x {3.0 0.0 44 ------- null}
- -t 1.165 -s 3 -d 0 -p cbr -e 210 -c 0 -i 68 -a 0 -x {3.0 0.0 44 ------- null}
h -t 1.165 -s 3 -d 0 -p cbr -e 210 -c 0 -i 68 -a 0 -x {3.0 0.0 -1 ------- null}
r -t 1.166418 -s 3 -d 0 -p cbr -e 210 -c 0 -i 67 -a 0 -x {3.0 0.0 43 ------- null}
+ -t 1.16875 -s 3 -d 0 -p cbr -e 210 -c 0 -i 69 -a 0 -x {3.0 0.0 45 ------- null}
- -t 1.16875 -s 3 -d 0 -p cbr -e 210 -c 0 -i 69 -a 0 -x {3.0 0.0 45 ------- null}
h -t 1.16875 -s 3 -d 0 -p cbr -e 210 -c 0 -i 69 -a 0 -x {3.0 0.0 -1 ------- null}
r -t 1.170168 -s 3 -d 0 -p cbr -e 210 -c 0 -i 68 -a 0 -x {3.0 0.0 44 ------- null}
+ -t 1.1725 -s 3 -d 0 -p cbr -e 210 -c 0 -i 70 -a 0 -x {3.0 0.0 46 ------- null}
- -t 1.1725 -s 3 -d 0 -p cbr -e 210 -c 0 -i 70 -a 0 -x {3.0 0.0 46 ------- null}
h -t 1.1725 -s 3 -d 0 -p cbr -e 210 -c 0 -i 70 -a 0 -x {3.0 0.0 -1 ------- null}
r -t 1.173918 -s 3 -d 0 -p cbr -e 210 -c 0 -i 69 -a 0 -x {3.0 0.0 45 ------- null}
+ -t 1.17625 -s 3 -d 0 -p cbr -e 210 -c 0 -i 71 -a 0 -x {3.0 0.0 47 ------- null}
- -t 1.17625 -s 3 -d 0 -p cbr -e 210 -c 0 -i 71 -a 0 -x {3.0 0.0 47 ------- null}
h -t 1.17625 -s 3 -d 0 -p cbr -e 210 -c 0 -i 71 -a 0 -x {3.0 0.0 -1 ------- null}
r -t 1.177668 -s 3 -d 0 -p cbr -e 210 -c 0 -i 70 -a 0 -x {3.0 0.0 46 ------- null}
+ -t 1.18 -s 3 -d 0 -p cbr -e 210 -c 0 -i 72 -a 0 -x {3.0 0.0 48 ------- null}
- -t 1.18 -s 3 -d 0 -p cbr -e 210 -c 0 -i 72 -a 0 -x {3.0 0.0 48 ------- null}
h -t 1.18 -s 3 -d 0 -p cbr -e 210 -c 0 -i 72 -a 0 -x {3.0 0.0 -1 ------- null}
r -t 1.181418 -s 3 -d 0 -p cbr -e 210 -c 0 -i 71 -a 0 -x {3.0 0.0 47 ------- null}
+ -t 1.18375 -s 3 -d 0 -p cbr -e 210 -c 0 -i 73 -a 0 -x {3.0 0.0 49 ------- null}
- -t 1.18375 -s 3 -d 0 -p cbr -e 210 -c 0 -i 73 -a 0 -x {3.0 0.0 49 ------- null}
h -t 1.18375 -s 3 -d 0 -p cbr -e 210 -c 0 -i 73 -a 0 -x {3.0 0.0 -1 ------- null}
r -t 1.185168 -s 3 -d 0 -p cbr -e 210 -c 0 -i 72 -a 0 -x {3.0 0.0 48 ------- null}
+ -t 1.1875 -s 3 -d 0 -p cbr -e 210 -c 0 -i 74 -a 0 -x {3.0 0.0 50 ------- null}
- -t 1.1875 -s 3 -d 0 -p cbr -e 210 -c 0 -i 74 -a 0 -x {3.0 0.0 50 ------- null}
h -t 1.1875 -s 3 -d 0 -p cbr -e 210 -c 0 -i 74 -a 0 -x {3.0 0.0 -1 ------- null}
r -t 1.188918 -s 3 -d 0 -p cbr -e 210 -c 0 -i 73 -a 0 -x {3.0 0.0 49 ------- null}
+ -t 1.19125 -s 3 -d 0 -p cbr -e 210 -c 0 -i 75 -a 0 -x {3.0 0.0 51 ------- null}
- -t 1.19125 -s 3 -d 0 -p cbr -e 210 -c 0 -i 75 -a 0 -x {3.0 0.0 51 ------- null}
h -t 1.19125 -s 3 -d 0 -p cbr -e 210 -c 0 -i 75 -a 0 -x {3.0 0.0 -1 ------- null}
r -t 1.192668 -s 3 -d 0 -p cbr -e 210 -c 0 -i 74 -a 0 -x {3.0 0.0 50 ------- null}
+ -t 1.195 -s 3 -d 0 -p cbr -e 210 -c 0 -i 76 -a 0 -x {3.0 0.0 52 ------- null}
- -t 1.195 -s 3 -d 0 -p cbr -e 210 -c 0 -i 76 -a 0 -x {3.0 0.0 52 ------- null}
h -t 1.195 -s 3 -d 0 -p cbr -e 210 -c 0 -i 76 -a 0 -x {3.0 0.0 -1 ------- null}
r -t 1.196418 -s 3 -d 0 -p cbr -e 210 -c 0 -i 75 -a 0 -x {3.0 0.0 51 ------- null}
+ -t 1.19875 -s 3 -d 0 -p cbr -e 210 -c 0 -i 77 -a 0 -x {3.0 0.0 53 ------- null}
- -t 1.19875 -s 3 -d 0 -p cbr -e 210 -c 0 -i 77 -a 0 -x {3.0 0.0 53 ------- null}
h -t 1.19875 -s 3 -d 0 -p cbr -e 210 -c 0 -i 77 -a 0 -x {3.0 0.0 -1 ------- null}
r -t 1.200168 -s 3 -d 0 -p cbr -e 210 -c 0 -i 76 -a 0 -x {3.0 0.0 52 ------- null}
+ -t 1.2025 -s 3 -d 0 -p cbr -e 210 -c 0 -i 78 -a 0 -x {3.0 0.0 54 ------- null}
- -t 1.2025 -s 3 -d 0 -p cbr -e 210 -c 0 -i 78 -a 0 -x {3.0 0.0 54 ------- null}
h -t 1.2025 -s 3 -d 0 -p cbr -e 210 -c 0 -i 78 -a 0 -x {3.0 0.0 -1 ------- null}
r -t 1.203918 -s 3 -d 0 -p cbr -e 210 -c 0 -i 77 -a 0 -x {3.0 0.0 53 ------- null}
+ -t 1.20625 -s 3 -d 0 -p cbr -e 210 -c 0 -i 79 -a 0 -x {3.0 0.0 55 ------- null}
- -t 1.20625 -s 3 -d 0 -p cbr -e 210 -c 0 -i 79 -a 0 -x {3.0 0.0 55 ------- null}
h -t 1.20625 -s 3 -d 0 -p cbr -e 210 -c 0 -i 79 -a 0 -x {3.0 0.0 -1 ------- null}
r -t 1.207668 -s 3 -d 0 -p cbr -e 210 -c 0 -i 78 -a 0 -x {3.0 0.0 54 ------- null}
+ -t 1.21 -s 3 -d 0 -p cbr -e 210 -c 0 -i 80 -a 0 -x {3.0 0.0 56 ------- null}
- -t 1.21 -s 3 -d 0 -p cbr -e 210 -c 0 -i 80 -a 0 -x {3.0 0.0 56 ------- null}
h -t 1.21 -s 3 -d 0 -p cbr -e 210 -c 0 -i 80 -a 0 -x {3.0 0.0 -1 ------- null}
r -t 1.211418 -s 3 -d 0 -p cbr -e 210 -c 0 -i 79 -a 0 -x {3.0 0.0 55 ------- null}
+ -t 1.21375 -s 3 -d 0 -p cbr -e 210 -c 0 -i 81 -a 0 -x {3.0 0.0 57 ------- null}
- -t 1.21375 -s 3 -d 0 -p cbr -e 210 -c 0 -i 81 -a 0 -x {3.0 0.0 57 ------- null}
h -t 1.21375 -s 3 -d 0 -p cbr -e 210 -c 0 -i 81 -a 0 -x {3.0 0.0 -1 ------- null}
r -t 1.215168 -s 3 -d 0 -p cbr -e 210 -c 0 -i 80 -a 0 -x {3.0 0.0 56 ------- null}
+ -t 1.2175 -s 3 -d 0 -p cbr -e 210 -c 0 -i 82 -a 0 -x {3.0 0.0 58 ------- null}
- -t 1.2175 -s 3 -d 0 -p cbr -e 210 -c 0 -i 82 -a 0 -x {3.0 0.0 58 ------- null}
h -t 1.2175 -s 3 -d 0 -p cbr -e 210 -c 0 -i 82 -a 0 -x {3.0 0.0 -1 ------- null}
r -t 1.218918 -s 3 -d 0 -p cbr -e 210 -c 0 -i 81 -a 0 -x {3.0 0.0 57 ------- null}
+ -t 1.22125 -s 3 -d 0 -p cbr -e 210 -c 0 -i 83 -a 0 -x {3.0 0.0 59 ------- null}
- -t 1.22125 -s 3 -d 0 -p cbr -e 210 -c 0 -i 83 -a 0 -x {3.0 0.0 59 ------- null}
h -t 1.22125 -s 3 -d 0 -p cbr -e 210 -c 0 -i 83 -a 0 -x {3.0 0.0 -1 ------- null}
r -t 1.222668 -s 3 -d 0 -p cbr -e 210 -c 0 -i 82 -a 0 -x {3.0 0.0 58 ------- null}
+ -t 1.225 -s 3 -d 0 -p cbr -e 210 -c 0 -i 84 -a 0 -x {3.0 0.0 60 ------- null}
- -t 1.225 -s 3 -d 0 -p cbr -e 210 -c 0 -i 84 -a 0 -x {3.0 0.0 60 ------- null}
h -t 1.225 -s 3 -d 0 -p cbr -e 210 -c 0 -i 84 -a 0 -x {3.0 0.0 -1 ------- null}
r -t 1.226418 -s 3 -d 0 -p cbr -e 210 -c 0 -i 83 -a 0 -x {3.0 0.0 59 ------- null}
+ -t 1.22875 -s 3 -d 0 -p cbr -e 210 -c 0 -i 85 -a 0 -x {3.0 0.0 61 ------- null}
- -t 1.22875 -s 3 -d 0 -p cbr -e 210 -c 0 -i 85 -a 0 -x {3.0 0.0 61 ------- null}
h -t 1.22875 -s 3 -d 0 -p cbr -e 210 -c 0 -i 85 -a 0 -x {3.0 0.0 -1 ------- null}